TITLE = "CFD Simulation Results"
VARIABLES = "X", "Y", "Variable" 
ZONE T="Flow Field", I=9, J=9, DATAPACKING=BLOCK
VARLOCATION=([3-7]=CELLCENTERED)
1.00893 0.832879 0.471604 0.140734 0 0.140734 0.471604 0.832879 1.00893 1.20416 0.988043 0.484231 -0.011715 -0.225011 -0.011715 0.484231 0.988043 1.20416 1.87349 1.46355 0.486936 -0.48696 -0.900109 -0.48696 0.486936 1.46355 1.87349 3.4407 2.57213 0.4875 -1.59552 -2.46849 -1.59552 0.4875 2.57213 3.4407 6.92188 5.03386 0.487616 -4.05727 -5.94984 -4.05727 0.487616 5.03386 6.92188 14.5769 10.4469 0.487641 -9.47042 -13.6047 -9.47042 0.487641 10.4469 14.5769 31.3753 22.3257 0.487646 -21.3493 -30.4028 -21.3493 0.487646 22.3257 31.3753 68.2231 48.3819 0.487647 -47.4059 -67.2497 -47.4059 0.487647 48.3819 68.2231 149.043 105.532 0.487647 -104.557 -148.067 -104.557 0.487647 105.532 149.043 
0 -0.022517 -0.054641 -0.052462 0 0.052462 0.054641 0.022517 0 0 -0.356239 -0.503144 -0.361484 0 0.361484 0.503144 0.356239 0 0 -0.910968 -1.28364 -0.910997 0 0.910997 1.28364 0.910968 0 0 -2.05505 -2.90095 -2.05401 0 2.05401 2.90095 2.05505 0 0 -4.53283 -6.40503 -4.53159 0 4.53159 6.40503 4.53283 0 0 -9.9532 -14.0709 -9.95199 0 9.95199 14.0709 9.9532 0 0 -21.8352 -30.8752 -21.8342 0 21.8342 30.8752 21.8352 0 0 -47.893 -67.7278 -47.8922 0 47.8922 67.7278 47.893 0 0 -105.044 -148.554 -105.044 0 105.044 148.554 105.044 0 
1.225 1.225 1.225 1.225 1.225 1.225 1.225 1.225 1.225 1.225 1.225 1.225 1.225 1.225 1.225 1.225 -nan(ind) -nan(ind) -nan(ind) -nan(ind) -nan(ind) -nan(ind) -nan(ind) -nan(ind) -nan(ind) -nan(ind) -nan(ind) -nan(ind) -nan(ind) -nan(ind) -nan(ind) -nan(ind) -nan(ind) -nan(ind) -nan(ind) -nan(ind) -nan(ind) -nan(ind) -nan(ind) -nan(ind) -nan(ind) -nan(ind) -nan(ind) -nan(ind) -nan(ind) -nan(ind) -nan(ind) -nan(ind) 1.225 1.225 1.225 1.225 1.225 1.225 1.225 1.225 1.225 1.225 1.225 1.225 1.225 1.225 1.225 1.225 
