TITLE = "Cell centroids and volumes"
VARIABLES = "X", "Y", "Volume"
ZONE T="Volume", N=81, E=64, F=FEPOINT
1.008930 0.000000
0.832879 -0.022517
0.471604 -0.054641
0.140734 -0.052462
0.000000 0.000000
0.140734 0.052462
0.471604 0.054641
0.832879 0.022517
1.008930 0.000000
1.204160 0.000000
0.988043 -0.356239
0.484231 -0.503144
-0.011715 -0.361484
-0.225011 0.000000
-0.011715 0.361484
0.484231 0.503144
0.988043 0.356239
1.204160 0.000000
1.873486 0.000000
1.463545 -0.910968
0.486936 -1.283636
-0.486960 -0.910997
-0.900109 0.000000
-0.486960 0.910997
0.486936 1.283636
1.463545 0.910968
1.873486 0.000000
3.440696 0.000000
2.572135 -2.055055
0.487500 -2.900945
-1.595524 -2.054013
-2.468486 0.000000
-1.595524 2.054013
0.487500 2.900945
2.572135 2.055055
3.440696 0.000000
6.921882 0.000000
5.033859 -4.532828
0.487616 -6.405035
-4.057271 -4.531592
-5.949841 0.000000
-4.057271 4.531592
0.487616 6.405035
5.033859 4.532828
6.921882 0.000000
14.576853 0.000000
10.446940 -9.953198
0.487641 -14.070859
-9.470422 -9.951986
-13.604685 0.000000
-9.470422 9.951986
0.487641 14.070859
10.446940 9.953198
14.576853 0.000000
31.375309 0.000000
22.325655 -21.835232
0.487646 -30.875221
-21.349289 -21.834162
-30.402761 0.000000
-21.349289 21.834162
0.487646 30.875221
22.325655 21.835232
31.375309 0.000000
68.223106 0.000000
48.381882 -47.892967
0.487647 -67.727821
-47.405853 -47.892235
-67.249702 0.000000
-47.405853 47.892235
0.487647 67.727821
48.381882 47.892967
68.223106 0.000000
149.042511 0.000000
105.531792 -105.043571
0.487647 -148.554047
-104.556503 -105.043571
-148.067215 0.000000
-104.556503 105.043571
0.487647 148.554047
105.531792 105.043571
149.042511 0.000000
1 2 11 10 0.065897
2 3 12 11 0.176683
3 4 13 12 0.161611
4 5 14 13 0.066413
5 6 15 14 0.066413
6 7 16 15 0.161611
7 8 17 16 0.176683
8 9 18 17 0.065897
10 11 20 19 0.449507
11 12 21 20 0.556288
12 13 22 21 0.549481
13 14 23 22 0.452007
14 15 24 23 0.452007
15 16 25 24 0.549481
16 17 26 25 0.556288
17 18 27 26 0.449507
19 20 29 28 2.349800
20 21 30 29 2.451219
21 22 31 30 2.447344
22 23 32 31 2.351801
23 24 33 32 2.351801
24 25 34 33 2.447344
25 26 35 34 2.451219
26 27 36 35 2.349800
28 29 38 37 11.495346
29 30 39 38 11.589131
30 31 40 39 11.585632
31 32 41 40 11.497687
32 33 42 41 11.497687
33 34 43 42 11.585632
34 35 44 43 11.589131
35 36 45 44 11.495346
37 38 47 46 55.480895
38 39 48 47 55.561532
39 40 49 48 55.556482
40 41 50 49 55.484784
41 42 51 50 55.484784
42 43 52 51 55.556482
43 44 53 52 55.561532
44 45 54 53 55.480895
46 47 56 55 267.050577
47 48 57 56 267.111552
48 49 58 57 267.103359
49 50 59 58 267.057136
50 51 60 59 267.057136
51 52 61 60 267.103359
52 53 62 61 267.111552
53 54 63 62 267.050577
55 56 65 64 1284.753787
56 57 66 65 1284.812081
57 58 67 66 1284.803679
58 59 68 67 1284.760816
59 60 69 68 1284.760816
60 61 70 69 1284.803679
61 62 71 70 1284.812081
62 63 72 71 1284.753787
64 65 74 73 6180.287798
65 66 75 74 6180.533192
66 67 76 75 6180.558176
67 68 77 76 6180.267503
68 69 78 77 6180.267503
69 70 79 78 6180.558176
70 71 80 79 6180.533192
71 72 81 80 6180.287798
