TITLE = "CFD Simulation Results"
VARIABLES = "X", "Y", "Variable" 
ZONE T="Flow Field", I=33, J=33, DATAPACKING=BLOCK
VARLOCATION=([3-7]=CELLCENTERED)
1.00893 0.995417 0.959052 0.903637 0.832879 0.750605 0.66061 0.566501 0.471604 0.378939 0.291254 0.211071 0.140734 0.082428 0.038184 0.009935 0 0.009935 0.038184 0.082428 0.140734 0.211071 0.291254 0.378939 0.471604 0.566501 0.66061 0.750605 0.832879 0.903637 0.959052 0.995417 1.00893 1.02213 1.01019 0.975662 0.921316 0.850498 0.76688 0.67425 0.576338 0.4767 0.378675 0.285385 0.19975 0.124489 0.062099 0.01481 -0.015395 -0.026042 -0.015395 0.01481 0.062099 0.124489 0.19975 0.285385 0.378675 0.4767 0.576338 0.67425 0.76688 0.850498 0.921316 0.975662 1.01019 1.02213 1.05888 1.04684 1.01157 0.955278 0.881052 0.79252 0.693577 0.588178 0.480204 0.373397 0.271324 0.177364 0.094667 0.026093 -0.025875 -0.059116 -0.070871 -0.059116 -0.025875 0.026093 0.094667 0.177364 0.271324 0.373397 0.480204 0.588178 0.693577 0.79252 0.881052 0.955278 1.01157 1.04684 1.05888 1.11899 1.10609 1.06812 1.00715 0.926226 0.829095 0.719899 0.602955 0.4826 0.363093 0.248558 0.142932 0.049887 -0.027273 -0.085719 -0.123088 -0.136303 -0.123088 -0.085719 -0.027273 0.049887 0.142932 0.248558 0.363093 0.4826 0.602955 0.719899 0.829095 0.926226 1.00715 1.06812 1.10609 1.11899 1.20416 1.18977 1.14736 1.07905 0.988043 0.878374 0.754602 0.621571 0.484231 0.347516 0.216253 0.09507 -0.011715 -0.100235 -0.167209 -0.209938 -0.225011 -0.209938 -0.167209 -0.100235 -0.011715 0.09507 0.216253 0.347516 0.484231 0.621571 0.754602 0.878374 0.988043 1.07905 1.14736 1.18977 1.20416 1.31733 1.30085 1.25224 1.17379 1.06904 0.942478 0.799266 0.644966 0.485337 0.32618 0.173205 0.031907 -0.092592 -0.195718 -0.273615 -0.323149 -0.340554 -0.323149 -0.273615 -0.195718 -0.092592 0.031907 0.173205 0.32618 0.485337 0.644966 0.799266 0.942478 1.06904 1.17379 1.25224 1.30085 1.31733 1.46268 1.44346 1.38673 1.29505 1.17243 1.02401 0.855768 0.674193 0.486087 0.298345 0.117791 -0.049002 -0.195911 -0.317482 -0.409136 -0.467199 -0.487507 -0.467199 -0.409136 -0.317482 -0.195911 -0.049002 0.117791 0.298345 0.486087 0.674193 0.855768 1.02401 1.17243 1.29505 1.38673 1.44346 1.46268 1.64573 1.62303 1.55596 1.4475 1.30225 1.12621 0.926391 0.710482 0.486594 0.262998 0.047901 -0.150782 -0.32569 -0.470278 -0.579073 -0.64773 -0.671632 -0.64773 -0.579073 -0.470278 -0.32569 -0.150782 0.047901 0.262998 0.486594 0.710482 0.926391 1.12621 1.30225 1.4475 1.55596 1.62303 1.64573 1.87349 1.84642 1.76646 1.63702 1.46355 1.25307 1.01393 0.755299 0.486936 0.218816 -0.03914 -0.277362 -0.48696 -0.660045 -0.790042 -0.87178 -0.900109 -0.87178 -0.790042 -0.660045 -0.48696 -0.277362 -0.03914 0.218816 0.486936 0.755299 1.01393 1.25307 1.46355 1.63702 1.76646 1.84642 1.87349 2.15471 2.12226 2.02632 1.87096 1.66256 1.40953 1.1218 0.810421 0.487167 0.164123 -0.146678 -0.43363 -0.685963 -0.89414 -1.05023 -1.14805 -1.18182 -1.14805 -1.05023 -0.89414 -0.685963 -0.43363 -0.146678 0.164123 0.487167 0.810421 1.1218 1.40953 1.66256 1.87096 2.02632 2.12226 2.15471 2.50025 2.46117 2.3456 2.15834 1.90701 1.60165 1.2542 0.878007 0.487323 0.096826 -0.278857 -0.625624 -0.930401 -1.18163 -1.36972 -1.48726 -1.52769 -1.48726 -1.36972 -1.18163 -0.930401 -0.625624 -0.278857 0.096826 0.487323 0.878007 1.2542 1.60165 1.90701 2.15834 2.3456 2.46117 2.50025 2.92346 2.87625 2.73661 2.51027 2.20634 1.83687 1.41627 0.960689 0.487429 0.014338 -0.440779 -0.860765 -1.22973 -1.53364 -1.76089 -1.90254 -1.95111 -1.90254 -1.76089 -1.53364 -1.22973 -0.860765 -0.440779 0.014338 0.487429 0.960689 1.41627 1.83687 2.20634 2.51027 2.73661 2.87625 2.92346 3.4407 3.38355 3.21449 2.94037 2.57213 2.12431 1.61429 1.06168 0.4875 -0.086521 -0.638698 -1.14814 -1.59552 -1.9638 -2.23887 -2.40997 -2.46849 -2.40997 -2.23887 -1.9638 -1.59552 -1.14814 -0.638698 -0.086521 0.4875 1.06168 1.61429 2.12431 2.57213 2.94037 3.21449 3.38355 3.4407 4.07195 4.00268 3.79771 3.46527 3.01854 2.47507 1.85592 1.18489 0.487548 -0.209644 -0.880264 -1.49887 -2.04194 -2.48873 -2.82215 -3.02918 -3.09983 -3.02918 -2.82215 -2.48873 -2.04194 -1.49887 -0.880264 -0.209644 0.487548 1.18489 1.85592 2.47507 3.01854 3.46527 3.79771 4.00268 4.07195 4.84164 4.75759 4.50882 4.10527 3.56283 2.90273 2.15052 1.33509 0.48758 -0.359787 -1.17482 -1.92651 -2.58623 -3.12876 -3.53331 -3.78414 -3.86957 -3.78414 -3.53331 -3.12876 -2.58623 -1.92651 -1.17482 -0.359787 0.48758 1.33509 2.15052 2.90273 3.56283 4.10527 4.50882 4.75759 4.84164 5.77952 5.67745 5.37533 4.88511 4.22605 3.42383 2.50948 1.5181 0.487602 -0.542755 -1.53374 -2.4476 -3.24946 -3.90863 -4.39985 -4.70403 -4.80748 -4.70403 -4.39985 -3.90863 -3.24946 -2.4476 -1.53374 -0.542755 0.487602 1.5181 2.50948 3.42383 4.22605 4.88511 5.37533 5.67745 5.77952 6.92188 6.79786 6.43074 5.83497 5.03386 4.05854 2.94668 1.74099 0.487616 -0.765622 -1.97093 -3.0823 -4.05727 -4.85851 -5.45528 -5.82446 -5.94984 -5.82446 -5.45528 -4.85851 -4.05727 -3.0823 -1.97093 -0.765622 0.487616 1.74099 2.94668 4.05854 5.03386 5.83497 6.43074 6.79786 6.92188 8.31289 8.16215 7.71588 6.99158 6.01749 4.83138 3.47903 2.0124 0.487626 -1.03701 -2.50327 -3.85515 -5.04092 -6.01514 -6.74043 -7.18874 -7.34084 -7.18874 -6.74043 -6.01514 -5.04092 -3.85515 -2.50327 -1.03701 0.487626 2.0124 3.47903 4.83138 6.01749 6.99158 7.71588 8.16215 8.31289 10.0064 9.82308 9.28045 8.39968 7.21499 5.77227 4.12714 2.3428 0.487633 -1.3674 -3.15138 -4.79604 -6.23843 -7.42325 -8.30502 -8.84966 -9.03427 -8.84966 -8.30502 -7.42325 -6.23843 -4.79604 -3.15138 -1.3674 0.487633 2.3428 4.12714 5.77227 7.21499 8.39968 9.28045 9.82308 10.0064 12.0678 11.8449 11.185 10.1137 8.67268 6.91759 4.91606 2.745 0.487638 -1.76959 -3.94029 -5.94137 -7.69614 -9.13731 -10.2095 -10.8714 -11.0956 -10.8714 -10.2095 -9.13731 -7.69614 -5.94137 -3.94029 -1.76959 0.487638 2.745 4.91606 6.91759 8.67268 10.1137 11.185 11.8449 12.0678 14.5769 14.3058 13.5031 12.2 10.4469 8.31163 5.8763 3.23453 0.487641 -2.25912 -4.90055 -7.33543 -9.47042 -11.2236 -12.5277 -13.3323 -13.6047 -13.3323 -12.5277 -11.2236 -9.47042 -7.33543 -4.90055 -2.25912 0.487641 3.23453 5.8763 8.31163 10.4469 12.2 13.5031 14.3058 14.5769 17.6307 17.3009 16.3245 14.7392 12.6064 10.0083 7.04502 3.83034 0.487643 -2.85493 -6.06927 -9.03214 -11.6299 -13.7628 -15.3491 -16.3274 -16.6584 -16.3274 -15.3491 -13.7628 -11.6299 -9.03214 -6.06927 -2.85493 0.487643 3.83034 7.04502 10.0083 12.6064 14.7392 16.3245 17.3009 17.6307 21.3473 20.9462 19.7582 17.8295 15.2345 12.0733 8.4674 4.55548 0.487644 -3.58007 -7.49167 -11.0971 -14.2581 -16.8532 -18.7828 -19.9726 -20.375 -19.9726 -18.7828 -16.8532 -14.2581 -11.0971 -7.49167 -3.58007 0.487644 4.55548 8.4674 12.0733 15.2345 17.8295 19.7582 20.9462 21.3473 25.8705 25.3825 23.9372 21.5906 18.4331 14.5864 10.1985 5.43797 0.487645 -4.46257 -9.22275 -13.6102 -17.4566 -20.6143 -22.9618 -24.4089 -24.8981 -24.4089 -22.9618 -20.6143 -17.4566 -13.6102 -9.22275 -4.46257 0.487645 5.43797 10.1985 14.5864 18.4331 21.5906 23.9372 25.3825 25.8705 31.3753 30.7815 29.023 26.1677 22.3257 17.6448 12.3052 6.51197 0.487646 -5.53657 -11.3295 -16.6687 -21.3493 -25.1915 -28.0476 -29.8078 -30.4028 -29.8078 -28.0476 -25.1915 -21.3493 -16.6687 -11.3295 -5.53657 0.487646 6.51197 12.3052 17.6448 22.3257 26.1677 29.023 30.7815 31.3753 38.0745 37.352 35.2123 31.738 27.0629 21.3669 14.869 7.81901 0.487646 -6.84362 -13.8933 -20.3908 -26.0866 -30.7618 -34.2369 -36.3782 -37.1018 -36.3782 -34.2369 -30.7618 -26.0866 -20.3908 -13.8933 -6.84362 0.487646 7.81901 14.869 21.3669 27.0629 31.738 35.2123 37.352 38.0745 46.2273 45.3481 42.7446 38.5169 32.8279 25.8965 17.9891 9.40964 0.487646 -8.43425 -17.0135 -24.9205 -31.8517 -37.5408 -41.7692 -44.3742 -45.2544 -44.3742 -41.7692 -37.5408 -31.8517 -24.9205 -17.0135 -8.43425 0.487646 9.40964 17.9891 25.8965 32.8279 38.5169 42.7446 45.3481 46.2273 56.1489 55.0791 51.911 46.7666 39.8438 31.4089 21.7862 11.3454 0.487647 -10.37 -20.8106 -30.433 -38.8677 -45.7906 -50.9357 -54.1051 -55.1758 -54.1051 -50.9357 -45.7906 -38.8677 -30.433 -20.8106 -10.37 0.487647 11.3454 21.7862 31.4089 39.8438 46.7666 51.911 55.0791 56.1489 68.2231 66.9214 63.0663 56.8062 48.3819 38.1173 26.4071 13.7011 0.487647 -12.7257 -25.4315 -37.1415 -47.4059 -55.8302 -62.0909 -65.9472 -67.2497 -65.9472 -62.0909 -55.8302 -47.4059 -37.1415 -25.4315 -12.7257 0.487647 13.7011 26.4071 38.1173 48.3819 56.8062 63.0663 66.9214 68.2231 82.9169 81.3329 76.6418 69.0239 58.7724 46.2812 32.0305 16.5679 0.487647 -15.5926 -31.055 -45.3054 -57.7965 -68.0481 -75.6664 -80.3585 -81.9432 -80.3585 -75.6664 -68.0481 -57.7965 -45.3054 -31.055 -15.5926 0.487647 16.5679 32.0305 46.2812 58.7724 69.0239 76.6418 81.3329 82.9169 100.799 98.8711 93.1625 83.8924 71.4171 56.2162 38.8739 20.0567 0.487647 -19.0814 -37.8985 -55.2406 -70.4414 -82.9167 -92.1872 -97.8965 -99.8245 -97.8965 -92.1872 -82.9167 -70.4414 -55.2406 -37.8985 -19.0814 0.487647 20.0567 38.8739 56.2162 71.4171 83.8924 93.1625 98.8711 100.799 122.56 120.214 113.268 101.987 86.8052 68.3067 47.2021 24.3024 0.487647 -23.3271 -46.2267 -67.3312 -85.8297 -101.011 -112.292 -119.239 -121.585 -119.239 -112.292 -101.011 -85.8297 -67.3312 -46.2267 -23.3271 0.487647 24.3024 47.2021 68.3067 86.8052 101.987 113.268 120.214 122.56 149.043 146.188 137.734 124.007 105.532 83.0203 57.3371 29.4693 0.487647 -28.494 -56.3618 -82.045 -104.557 -123.031 -136.759 -145.213 -148.067 -145.213 -136.759 -123.031 -104.557 -82.045 -56.3618 -28.494 0.487647 29.4693 57.3371 83.0203 105.532 124.007 137.734 146.188 149.043 
0 -0.001901 -0.006864 -0.014023 -0.022517 -0.03154 -0.040361 -0.04829 -0.054641 -0.058745 -0.06 -0.05797 -0.052462 -0.043572 -0.031625 -0.016984 0 0.016984 0.031625 0.043572 0.052462 0.05797 0.06 0.058745 0.054641 0.04829 0.040361 0.03154 0.022517 0.014023 0.006864 0.001901 0 0 -0.025701 -0.051385 -0.076214 -0.099085 -0.118977 -0.13503 -0.146532 -0.152874 -0.153548 -0.148185 -0.136632 -0.11902 -0.095795 -0.067659 -0.035407 0 0.035407 0.067659 0.095795 0.11902 0.136632 0.148185 0.153548 0.152874 0.146532 0.13503 0.118977 0.099085 0.076214 0.051385 0.025701 0 0 -0.048632 -0.095617 -0.139242 -0.177847 -0.210004 -0.234574 -0.250696 -0.257741 -0.255296 -0.243195 -0.221571 -0.190923 -0.152126 -0.106389 -0.055112 0 0.055112 0.106389 0.152126 0.190923 0.221571 0.243195 0.255296 0.257741 0.250696 0.234574 0.210004 0.177847 0.139242 0.095617 0.048632 0 0 -0.072541 -0.142205 -0.206281 -0.262352 -0.308411 -0.3429 -0.364694 -0.373056 -0.367615 -0.348381 -0.315792 -0.27076 -0.214679 -0.149375 -0.076974 0 0.076974 0.149375 0.214679 0.27076 0.315792 0.348381 0.367615 0.373056 0.364694 0.3429 0.308411 0.262352 0.206281 0.142205 0.072541 0 0 -0.098761 -0.193486 -0.280415 -0.356239 -0.418229 -0.464279 -0.492892 -0.503144 -0.494656 -0.467604 -0.422751 -0.361484 -0.285806 -0.198274 -0.101857 0 0.101857 0.198274 0.285806 0.361484 0.422751 0.467604 0.494656 0.503144 0.492892 0.464279 0.418229 0.356239 0.280415 0.193486 0.098761 0 0 -0.128501 -0.251745 -0.364821 -0.463396 -0.543878 -0.603485 -0.640242 -0.652962 -0.641215 -0.605337 -0.546455 -0.466502 -0.368194 -0.254946 -0.130712 0 0.130712 0.254946 0.368194 0.466502 0.546455 0.605337 0.641215 0.652962 0.640242 0.603485 0.543878 0.463396 0.364821 0.251745 0.128501 0 0 -0.163019 -0.319411 -0.462957 -0.588139 -0.690344 -0.765969 -0.812454 -0.828265 -0.812887 -0.766821 -0.691602 -0.5898 -0.464973 -0.321549 -0.164638 0 0.164638 0.321549 0.464973 0.5898 0.691602 0.766821 0.812887 0.828265 0.812454 0.765969 0.690344 0.588139 0.462957 0.319411 0.163019 0 0 -0.20371 -0.399204 -0.57874 -0.735407 -0.863378 -0.958069 -1.0162 -1.03582 -1.01627 -0.958242 -0.863744 -0.736093 -0.579842 -0.400628 -0.204932 0 0.204932 0.400628 0.579842 0.736093 0.863744 0.958242 1.01627 1.03582 1.0162 0.958069 0.863378 0.735407 0.57874 0.399204 0.20371 0 0 -0.252183 -0.494272 -0.716724 -0.910968 -1.06973 -1.18725 -1.25938 -1.28364 -1.2592 -1.18697 -1.0695 -0.910997 -0.71721 -0.495216 -0.253137 0 0.253137 0.495216 0.71721 0.910997 1.0695 1.18697 1.2592 1.28364 1.25938 1.18725 1.06973 0.910968 0.716724 0.494272 0.252183 0 0 -0.310334 -0.608332 -0.882293 -1.12166 -1.31743 -1.46242 -1.55141 -1.5813 -1.55107 -1.46182 -1.31679 -1.12125 -0.882365 -0.608951 -0.311108 0 0.311108 0.608951 0.882365 1.12125 1.31679 1.46182 1.55107 1.5813 1.55141 1.46242 1.31743 1.12166 0.882293 0.608332 0.310334 0 0 -0.380427 -0.745819 -1.08188 -1.37567 -1.61608 -1.79422 -1.9036 -1.94034 -1.90314 -1.79341 -1.61517 -1.37496 -1.08167 -0.74622 -0.381078 0 0.381078 0.74622 1.08167 1.37496 1.61517 1.79341 1.90314 1.94034 1.9036 1.79422 1.61608 1.37567 1.08188 0.745819 0.380427 0 0 -0.46518 -0.912066 -1.32323 -1.68284 -1.97725 -2.1955 -2.32958 -2.37462 -2.32904 -2.19456 -1.97616 -1.68193 -1.32284 -0.91232 -0.465749 0 0.465749 0.91232 1.32284 1.68193 1.97616 2.19456 2.32904 2.37462 2.32958 2.1955 1.97725 1.68284 1.32323 0.912066 0.46518 0 0 -0.567878 -1.11351 -1.61568 -2.05505 -2.41493 -2.68181 -2.84581 -2.90095 -2.84523 -2.68077 -2.41371 -2.05401 -1.61516 -1.11367 -0.56839 0 0.56839 1.11367 1.61516 2.05401 2.41371 2.68077 2.84523 2.90095 2.84581 2.68181 2.41493 2.05505 1.61568 1.11351 0.567878 0 0 -0.692495 -1.35796 -1.97056 -2.50673 -2.94604 -3.27194 -3.47229 -3.53968 -3.47167 -3.27085 -2.94475 -2.5056 -1.96996 -1.35805 -0.692968 0 0.692968 1.35805 1.96996 2.5056 2.94475 3.27085 3.47167 3.53968 3.47229 3.27194 2.94604 2.50673 1.97056 1.35796 0.692495 0 0 -0.843854 -1.65486 -2.4016 -3.05534 -3.59114 -3.98874 -4.23323 -4.31552 -4.23259 -3.98761 -3.5898 -3.05416 -2.40095 -1.65491 -0.8443 0 0.8443 1.65491 2.40095 3.05416 3.5898 3.98761 4.23259 4.31552 4.23323 3.98874 3.59114 3.05534 2.4016 1.65486 0.843854 0 0 -1.02781 -2.01571 -2.92548 -3.72211 -4.37518 -4.85992 -5.15808 -5.25848 -5.15743 -4.85877 -4.37381 -3.72089 -2.92478 -2.01572 -1.02824 0 1.02824 2.01572 2.92478 3.72089 4.37381 4.85877 5.15743 5.25848 5.15808 4.85992 4.37518 3.72211 2.92548 2.01571 1.02781 0 0 -1.25148 -2.45446 -3.56244 -4.53283 -5.32849 -5.9192 -6.2826 -6.40503 -6.28195 -5.91803 -5.32711 -4.53159 -3.56173 -2.45445 -1.25189 0 1.25189 2.45445 3.56173 4.53159 5.32711 5.91803 6.28195 6.40503 6.2826 5.9192 5.32849 4.53283 3.56244 2.45446 1.25148 0 0 -1.52352 -2.98808 -4.33715 -5.51885 -6.48795 -7.20752 -7.65029 -7.79952 -7.64963 -7.20636 -6.48656 -5.51761 -4.33643 -2.98805 -1.52392 0 1.52392 2.98805 4.33643 5.51761 6.48656 7.20636 7.64963 7.79952 7.65029 7.20752 6.48795 5.51885 4.33715 2.98808 1.52352 0 0 -1.85444 -3.63721 -5.27955 -6.71832 -7.89839 -8.77473 -9.31404 -9.49588 -9.31339 -8.77358 -7.897 -6.71708 -5.27883 -3.63718 -1.85483 0 1.85483 3.63718 5.27883 6.71708 7.897 8.77358 9.31339 9.49588 9.31404 8.77473 7.89839 6.71832 5.27955 3.63721 1.85444 0 0 -2.25705 -4.42696 -6.4261 -8.17762 -9.61437 -10.6815 -11.3382 -11.5597 -11.3376 -10.6803 -9.61299 -8.17639 -6.42538 -4.42692 -2.25743 0 2.25743 4.42692 6.42538 8.17639 9.61299 10.6803 11.3376 11.5597 11.3382 10.6815 9.61437 8.17762 6.4261 4.42696 2.25705 0 0 -2.74691 -5.38787 -7.82115 -9.9532 -11.7023 -13.0014 -13.8011 -14.0709 -13.8005 -13.0003 -11.7009 -9.95199 -7.82044 -5.38783 -2.74728 0 2.74728 5.38783 7.82044 9.95199 11.7009 13.0003 13.8005 14.0709 13.8011 13.0014 11.7023 9.9532 7.82115 5.38787 2.74691 0 0 -3.34298 -6.55712 -9.51865 -12.1137 -14.2428 -15.8244 -16.7979 -17.1264 -16.7973 -15.8233 -14.2415 -12.1125 -9.51795 -6.55708 -3.34334 0 3.34334 6.55708 9.51795 12.1125 14.2415 15.8233 16.7973 17.1264 16.7979 15.8244 14.2428 12.1137 9.51865 6.55712 3.34298 0 0 -4.06832 -7.97992 -11.5843 -14.7428 -17.3343 -19.2595 -20.4447 -20.8446 -20.4441 -19.2584 -17.333 -14.7416 -11.5836 -7.97987 -4.06867 0 4.06867 7.97987 11.5836 14.7416 17.333 19.2584 20.4441 20.8446 20.4447 19.2595 17.3343 14.7428 11.5843 7.97992 4.06832 0 0 -4.95096 -9.7113 -14.0979 -17.942 -21.0963 -23.4396 -24.8823 -25.3692 -24.8817 -23.4386 -21.095 -17.9409 -14.0972 -9.71125 -4.9513 0 4.9513 9.71125 14.0972 17.9409 21.095 23.4386 24.8817 25.3692 24.8823 23.4396 21.0963 17.942 14.0979 9.7113 4.95096 0 0 -6.02505 -11.8182 -17.1567 -21.8352 -25.6742 -28.5264 -30.2825 -30.8752 -30.2819 -28.5254 -25.673 -21.8342 -17.1561 -11.8182 -6.02538 0 6.02538 11.8182 17.1561 21.8342 25.673 28.5254 30.2819 30.8752 30.2825 28.5264 25.6742 21.8352 17.1567 11.8182 6.02505 0 0 -7.33214 -14.3822 -20.879 -26.5729 -31.2453 -34.7167 -36.8541 -37.5756 -36.8536 -34.7158 -31.2441 -26.5719 -20.8784 -14.3822 -7.33245 0 7.33245 14.3822 20.8784 26.5719 31.2441 34.7158 36.8536 37.5756 36.8541 34.7167 31.2453 26.5729 20.879 14.3822 7.33214 0 0 -8.92278 -17.5024 -25.4089 -32.3384 -38.0248 -42.2498 -44.8513 -45.7295 -44.8508 -42.249 -38.0238 -32.3375 -25.4083 -17.5023 -8.92306 0 8.92306 17.5023 25.4083 32.3375 38.0238 42.249 44.8508 45.7295 44.8513 42.2498 38.0248 32.3384 25.4089 17.5024 8.92278 0 0 -10.8585 -21.2994 -30.9214 -39.3546 -46.2751 -51.4172 -54.5834 -55.6523 -54.583 -51.4164 -46.2742 -39.3538 -30.9209 -21.2994 -10.8587 0 10.8587 21.2994 30.9209 39.3538 46.2742 51.4164 54.583 55.6523 54.5834 51.4172 46.2751 39.3546 30.9214 21.2994 10.8585 0 0 -13.2141 -25.9202 -37.6298 -47.893 -56.3153 -62.5733 -66.4268 -67.7278 -66.4264 -62.5727 -56.3145 -47.8922 -37.6294 -25.9202 -13.2144 0 13.2144 25.9202 37.6294 47.8922 56.3145 62.5727 66.4264 67.7278 66.4268 62.5733 56.3153 47.893 37.6298 25.9202 13.2141 0 0 -16.0808 -31.5435 -45.7937 -58.2837 -68.5336 -76.1498 -80.8396 -82.423 -80.8393 -76.1492 -68.5329 -58.2831 -45.7933 -31.5435 -16.081 0 16.081 31.5435 45.7933 58.2831 68.5329 76.1492 80.8393 82.423 80.8396 76.1498 68.5336 58.2837 45.7937 31.5435 16.0808 0 0 -19.5695 -38.3867 -55.7286 -70.9286 -83.4027 -92.6716 -98.3792 -100.306 -98.379 -92.6712 -83.4022 -70.9282 -55.7283 -38.3867 -19.5696 0 19.5696 38.3867 55.7283 70.9282 83.4022 92.6712 98.379 100.306 98.3792 92.6716 83.4027 70.9286 55.7286 38.3867 19.5695 0 0 -23.8149 -46.7146 -67.8189 -86.3168 -101.498 -112.778 -119.724 -122.069 -119.724 -112.778 -101.497 -86.3166 -67.8188 -46.7146 -23.815 0 23.815 46.7146 67.8188 86.3166 101.497 112.778 119.724 122.069 119.724 112.778 101.498 86.3168 67.8189 46.7146 23.8149 0 0 -28.9815 -56.8492 -82.5322 -105.044 -123.518 -137.246 -145.7 -148.554 -145.7 -137.246 -123.518 -105.044 -82.5322 -56.8492 -28.9815 0 28.9815 56.8492 82.5322 105.044 123.518 137.246 145.7 148.554 145.7 137.246 123.518 105.044 82.5322 56.8492 28.9815 0 
0.000344458 0.00145127 0.00320241 0.00518802 0.00704679 0.0085003 0.00937479 0.0096027 0.00920828 0.00828536 0.00697493 0.00544527 0.00387774 0.00245754 0.00136678 0.000767653 0.000767653 0.00136678 0.00245754 0.00387774 0.00544527 0.00697493 0.00828536 0.00920828 0.0096027 0.00937479 0.0085003 0.00704679 0.00518802 0.00320241 0.00145127 0.000344458 0.00150142 0.00249007 0.00416252 0.00613299 0.0080385 0.00958374 0.0105693 0.0109007 0.0105811 0.00969424 0.00838179 0.0068235 0.00521921 0.00377522 0.00268945 0.00211422 0.00211422 0.00268945 0.00377522 0.00521921 0.0068235 0.00838179 0.00969424 0.0105811 0.0109007 0.0105693 0.00958374 0.0080385 0.00613299 0.00416252 0.00249007 0.00150142 0.00376512 0.00466764 0.00625038 0.00817493 0.0100885 0.011686 0.0127476 0.0131558 0.0128948 0.0120374 0.0107249 0.00914602 0.00751574 0.00605598 0.00497306 0.00440959 0.00440959 0.00497306 0.00605598 0.00751574 0.00914602 0.0107249 0.0120374 0.0128948 0.0131558 0.0127476 0.011686 0.0100885 0.00817493 0.00625038 0.00466764 0.00376512 0.00740997 0.00825302 0.00975941 0.0116311 0.0135325 0.0151563 0.0162689 0.016734 0.0165191 0.0156869 0.0143771 0.0127847 0.0111364 0.00966487 0.00858215 0.00802478 0.00802478 0.00858215 0.00966487 0.0111364 0.0127847 0.0143771 0.0156869 0.0165191 0.016734 0.0162689 0.0151563 0.0135325 0.0116311 0.00975941 0.00825302 0.00740997 0.0129704 0.0137704 0.0152157 0.0170374 0.0189173 0.020551 0.0216964 0.0222031 0.0220248 0.0212146 0.01991 0.0183103 0.0166499 0.0151703 0.0140874 0.0135346 0.0135346 0.0140874 0.0151703 0.0166499 0.0183103 0.01991 0.0212146 0.0220248 0.0222031 0.0216964 0.020551 0.0189173 0.0170374 0.0152157 0.0137704 0.0129704 0.0212951 0.0220629 0.023459 0.0252355 0.0270901 0.0287231 0.0298881 0.0304246 0.030275 0.0294847 0.0281878 0.0265856 0.0249186 0.0234349 0.0223542 0.0218068 0.0218068 0.0223542 0.0234349 0.0249186 0.0265856 0.0281878 0.0294847 0.030275 0.0304246 0.0298881 0.0287231 0.0270901 0.0252355 0.023459 0.0220629 0.0212951 0.0336716 0.0344134 0.0357684 0.0375046 0.039332 0.0409573 0.0421322 0.0426893 0.0425624 0.0417897 0.0405022 0.0389024 0.0372341 0.0357507 0.0346761 0.0341368 0.0341368 0.0346761 0.0357507 0.0372341 0.0389024 0.0405022 0.0417897 0.0425624 0.0426893 0.0421322 0.0409573 0.039332 0.0375046 0.0357684 0.0344134 0.0336716 0.0520223 0.0527421 0.0540617 0.0557606 0.0575594 0.0591717 0.0603488 0.060919 0.0608098 0.0600534 0.0587768 0.0571834 0.0555192 0.0540419 0.0529789 0.0524516 0.0524516 0.0529789 0.0540419 0.0555192 0.0571834 0.0587768 0.0600534 0.0608098 0.060919 0.0603488 0.0591717 0.0575594 0.0557606 0.0540617 0.0527421 0.0520223 0.0792035 0.0799043 0.0811914 0.0828545 0.0846236 0.0862178 0.0873909 0.0879682 0.087872 0.0871306 0.0858668 0.0842837 0.0826293 0.0811644 0.0801194 0.0796096 0.0796096 0.0801194 0.0811644 0.0826293 0.0842837 0.0858668 0.0871306 0.087872 0.0879682 0.0873909 0.0862178 0.0846236 0.0828545 0.0811914 0.0799043 0.0792035 0.119452 0.120135 0.121391 0.123018 0.124756 0.126328 0.127491 0.12807 0.127983 0.127255 0.126006 0.124437 0.122799 0.121354 0.120335 0.119848 0.119848 0.120335 0.121354 0.122799 0.124437 0.126006 0.127255 0.127983 0.12807 0.127491 0.126328 0.124756 0.123018 0.121391 0.120135 0.119452 0.179045 0.179709 0.180934 0.182524 0.184227 0.185772 0.18692 0.187495 0.187415 0.186699 0.185467 0.183917 0.182302 0.180885 0.1799 0.179444 0.179444 0.1799 0.180885 0.182302 0.183917 0.185467 0.186699 0.187415 0.187495 0.18692 0.185772 0.184227 0.182524 0.180934 0.179709 0.179045 0.26728 0.267926 0.269118 0.270668 0.272331 0.273844 0.274971 0.275537 0.27546 0.274757 0.273543 0.272019 0.270432 0.269052 0.268113 0.267695 0.267695 0.268113 0.269052 0.270432 0.272019 0.273543 0.274757 0.27546 0.275537 0.274971 0.273844 0.272331 0.270668 0.269118 0.267926 0.26728 0.397926 0.398552 0.399708 0.401215 0.402833 0.404308 0.405407 0.40596 0.405884 0.405192 0.404 0.402506 0.400958 0.399625 0.398742 0.398373 0.398373 0.398742 0.399625 0.400958 0.402506 0.404 0.405192 0.405884 0.40596 0.405407 0.404308 0.402833 0.401215 0.399708 0.398552 0.397926 0.591377 0.591981 0.593098 0.594555 0.59612 0.59755 0.598616 0.59915 0.599071 0.598392 0.597225 0.595768 0.594268 0.592994 0.592182 0.591871 0.591871 0.592182 0.592994 0.594268 0.595768 0.597225 0.598392 0.599071 0.59915 0.598616 0.59755 0.59612 0.594555 0.593098 0.591981 0.591377 0.877833 0.878412 0.879483 0.880884 0.88239 0.883766 0.884791 0.885301 0.885216 0.884551 0.883413 0.882 0.880557 0.879355 0.878629 0.878388 0.878388 0.878629 0.879355 0.880557 0.882 0.883413 0.884551 0.885216 0.885301 0.884791 0.883766 0.88239 0.880884 0.879483 0.878412 0.877833 1.30202 1.30257 1.30359 1.30493 1.30636 1.30767 1.30865 1.30913 1.30904 1.30839 1.30728 1.30592 1.30455 1.30343 1.30281 1.30266 1.30266 1.30281 1.30343 1.30455 1.30592 1.30728 1.30839 1.30904 1.30913 1.30865 1.30767 1.30636 1.30493 1.30359 1.30257 1.30202 1.93017 1.93069 1.93165 1.93291 1.93427 1.93551 1.93642 1.93687 1.93676 1.93612 1.93506 1.93376 1.93247 1.93146 1.93096 1.93091 1.93091 1.93096 1.93146 1.93247 1.93376 1.93506 1.93612 1.93676 1.93687 1.93642 1.93551 1.93427 1.93291 1.93165 1.93069 1.93017 2.86038 2.86086 2.86175 2.86293 2.86419 2.86534 2.86619 2.86659 2.86647 2.86585 2.86484 2.86361 2.86241 2.86152 2.86117 2.86123 2.86123 2.86117 2.86152 2.86241 2.86361 2.86484 2.86585 2.86647 2.86659 2.86619 2.86534 2.86419 2.86293 2.86175 2.86086 2.86038 4.2379 4.23834 4.23916 4.24024 4.2414 4.24245 4.24322 4.24357 4.24344 4.24283 4.24186 4.24072 4.23964 4.23889 4.2387 4.2389 4.2389 4.2387 4.23889 4.23964 4.24072 4.24186 4.24283 4.24344 4.24357 4.24322 4.24245 4.2414 4.24024 4.23916 4.23834 4.2379 6.27788 6.27827 6.27901 6.27997 6.28101 6.28196 6.28264 6.28293 6.28278 6.2822 6.28129 6.28024 6.27928 6.27869 6.27868 6.27903 6.27903 6.27868 6.27869 6.27928 6.28024 6.28129 6.2822 6.28278 6.28293 6.28264 6.28196 6.28101 6.27997 6.27901 6.27827 6.27788 9.29891 9.29925 9.2999 9.30074 9.30166 9.30248 9.30306 9.30329 9.30312 9.30256 9.30171 9.30076 9.29994 9.29952 9.29972 9.30024 9.30024 9.29972 9.29952 9.29994 9.30076 9.30171 9.30256 9.30312 9.30329 9.30306 9.30248 9.30166 9.30074 9.2999 9.29925 9.29891 13.7728 13.7731 13.7737 13.7744 13.7752 13.7759 13.7763 13.7765 13.7763 13.7758 13.775 13.7741 13.7735 13.7732 13.7737 13.7744 13.7744 13.7737 13.7732 13.7735 13.7741 13.775 13.7758 13.7763 13.7765 13.7763 13.7759 13.7752 13.7744 13.7737 13.7731 13.7728 20.3984 20.3986 20.3991 20.3997 20.4003 20.4009 20.4013 20.4014 20.4012 20.4006 20.3999 20.3992 20.3987 20.3986 20.3992 20.4001 20.4001 20.3992 20.3986 20.3987 20.3992 20.3999 20.4006 20.4012 20.4014 20.4013 20.4009 20.4003 20.3997 20.3991 20.3986 20.3984 30.2105 30.2107 30.211 30.2115 30.2121 30.2125 30.2128 30.2129 30.2126 30.2121 30.2115 30.2108 30.2104 30.2105 30.2113 30.2124 30.2124 30.2113 30.2105 30.2104 30.2108 30.2115 30.2121 30.2126 30.2129 30.2128 30.2125 30.2121 30.2115 30.211 30.2107 30.2105 44.7416 44.7418 44.7421 44.7426 44.743 44.7434 44.7436 44.7436 44.7434 44.7429 44.7423 44.7417 44.7414 44.7416 44.7425 44.7436 44.7436 44.7425 44.7416 44.7414 44.7417 44.7423 44.7429 44.7434 44.7436 44.7436 44.7434 44.743 44.7426 44.7421 44.7418 44.7416 66.2616 66.2618 66.2621 66.2625 66.263 66.2634 66.2636 66.2637 66.2634 66.2629 66.2623 66.2617 66.2613 66.2615 66.2624 66.2635 66.2635 66.2624 66.2615 66.2613 66.2617 66.2623 66.2629 66.2634 66.2637 66.2636 66.2634 66.263 66.2625 66.2621 66.2618 66.2616 98.1316 98.1319 98.1323 98.1329 98.1335 98.1341 98.1344 98.1345 98.1343 98.1338 98.1331 98.1324 98.1318 98.1318 98.1325 98.1333 98.1333 98.1325 98.1318 98.1318 98.1324 98.1331 98.1338 98.1343 98.1345 98.1344 98.1341 98.1335 98.1329 98.1323 98.1319 98.1316 145.33 145.33 145.331 145.332 145.333 145.334 145.335 145.335 145.335 145.334 145.333 145.332 145.331 145.331 145.331 145.331 145.331 145.331 145.331 145.331 145.332 145.333 145.334 145.335 145.335 145.335 145.334 145.333 145.332 145.331 145.33 145.33 215.228 215.229 215.231 215.232 215.234 215.236 215.237 215.238 215.238 215.237 215.236 215.234 215.232 215.231 215.229 215.228 215.228 215.229 215.231 215.232 215.234 215.236 215.237 215.238 215.238 215.237 215.236 215.234 215.232 215.231 215.229 215.228 318.746 318.747 318.749 318.753 318.756 318.759 318.762 318.763 318.763 318.762 318.76 318.757 318.754 318.75 318.746 318.744 318.744 318.746 318.75 318.754 318.757 318.76 318.762 318.763 318.763 318.762 318.759 318.756 318.753 318.749 318.747 318.746 472.051 472.054 472.058 472.063 472.069 472.075 472.079 472.082 472.083 472.081 472.078 472.073 472.067 472.059 472.051 472.045 472.045 472.051 472.059 472.067 472.073 472.078 472.081 472.083 472.082 472.079 472.075 472.069 472.063 472.058 472.054 472.051 699.091 699.095 699.102 699.112 699.122 699.131 699.139 699.144 699.145 699.143 699.138 699.13 699.119 699.106 699.091 699.08 699.08 699.091 699.106 699.119 699.13 699.138 699.143 699.145 699.144 699.139 699.131 699.122 699.112 699.102 699.095 699.091 
